# O cryst-alpha [Meier84] in acute angle (hcp of diatomic molecules, xy-plane is hexagonal close-packed plane of hcp)
data_nolabel
_journal_paper_doi               10.1103/PhysRevB.29.1387
_diffrn_ambient_temperature      6
_cell_length_a                   5.389
_cell_length_b                   3.433
_cell_length_c                   4.242
_cell_angle_alpha                90
_cell_angle_beta                 62.20
_cell_angle_gamma                90
_cell_formula_units_Z            2
_symmetry_space_group_name_H-M   C2/m
loop_
_symmetry_equiv_pos_as_xyz
x,y,z
-x,y,-z
-x,-y,-z
x,-y,z
x+1/2,y+1/2,z
-x+1/2,y+1/2,-z
-x+1/2,-y+1/2,-z
x+1/2,-y+1/2,z
loop_
_atom_site_type_symbol
_atom_site_fract_x
_atom_site_fract_y
_atom_site_fract_z
_atom_site_Wyckoff_symbol
O -.066  0  .171  4i
O  .066  0 -.171  4i
