# O cryst-gamma [Cox73] (statistical model: O2 molecules move around (2a) <0,0,0> and (6d) <0,1/4,1/2> sites)
data_nolabel
_journal_paper_doi               10.1103/PhysRevB.7.3102
_diffrn_ambient_temperature      46
_cell_length_a                   6.78
_cell_length_b                   6.78
_cell_length_c                   6.78
_cell_angle_alpha                90
_cell_angle_beta                 90
_cell_angle_gamma                90
_cell_formula_units_Z            8
_symmetry_space_group_name_H-M   Pm-3n
loop_
_atom_site_type_symbol
_atom_site_fract_x
_atom_site_fract_y
_atom_site_fract_z
_atom_site_occupancy
O 0.04360 0.04360 0.04360 0.25000
O 0.03400 0.25160 0.41510 0.25000

loop_
_atom_site_aniso_label
_atom_site_aniso_U_11
_atom_site_aniso_U_22
_atom_site_aniso_U_33
_atom_site_aniso_U_12
_atom_site_aniso_U_13
_atom_site_aniso_U_23
O1 0.13110 0.13110 0.13110 -0.01800 -0.01800 -0.01800
O2 0.05860 0.10630 0.09260 -0.00380 -0.00790 -0.01580
